 Gaussian 16, Revision A.03,

 -------------------
 #P B3LYP/6-31G* opt
 -------------------

 -------------------
 Title Card Required
 -------------------
 Symbolic Z-matrix:
 Charge =  0 Multiplicity = 1

 SCF Done:  E(RB3LYP) =  -1008.01833909     A.U. after   15 cycles
 SCF Done:  E(RB3LYP) =  -1008.02619940     A.U. after   12 cycles
 SCF Done:  E(RB3LYP) =  -1008.02712098     A.U. after   12 cycles
 SCF Done:  E(RB3LYP) =  -1008.02738448     A.U. after   12 cycles
 SCF Done:  E(RB3LYP) =  -1008.02757238     A.U. after   12 cycles
 SCF Done:  E(RB3LYP) =  -1008.02767500     A.U. after   11 cycles
 SCF Done:  E(RB3LYP) =  -1008.02778469     A.U. after   12 cycles
 SCF Done:  E(RB3LYP) =  -1008.02781650     A.U. after   11 cycles
 SCF Done:  E(RB3LYP) =  -1008.02782121     A.U. after    9 cycles
 SCF Done:  E(RB3LYP) =  -1008.02782466     A.U. after    9 cycles
 SCF Done:  E(RB3LYP) =  -1008.02826394     A.U. after    7 cycles
 SCF Done:  E(RB3LYP) =  -1008.02826396     A.U. after    6 cycles
 Optimization completed.
    -- Stationary point found.
 Normal termination of Gaussian 16 at Tue Jan 18 09:58:01 2022.
 Gaussian 16:  ES64L-G16RevA.03 25-Dec-2016

 ----------------------------------------------------------------------
 #p M062X/6-31G* geom=checkpoint guess=read scrf=(smd,solvent=water,ext
 ernaliteration,1stVac)
 ----------------------------------------------------------------------

 -------------------
 Title Card Required
 -------------------
 Structure from the checkpoint file:  "100011.chk"
 Charge =  0 Multiplicity = 1

                         Standard orientation:
 ---------------------------------------------------------------------
 Center     Atomic      Atomic             Coordinates (Angstroms)
 Number     Number       Type             X           Y           Z
 ---------------------------------------------------------------------
      1          6           0       -7.020935   -1.405492   -0.718526
      2          6           0       -5.896538   -1.264990   -1.536686
      3          6           0       -7.050582   -0.780010    0.527690
      4          6           0        5.554793    1.285962   -0.493139
      5          6           0       -4.810908   -0.501762   -1.110214
      6          6           0       -5.959345   -0.019625    0.954467
      7          6           0        6.376700    0.168170   -0.373395
      8          6           0        4.174285    1.189421   -0.316317
      9          6           0        4.443939   -1.188222    0.105477
     10          6           0        0.411835   -1.326603    0.611768
     11          6           0        0.089088    2.606272   -0.246397
     12          6           0        0.001709    0.008982    0.355140
     13          6           0       -4.831274    0.131075    0.141166
     14          6           0        5.825442   -1.084172   -0.068689
     15          6           0        3.621184   -0.060307   -0.015616
     16          6           0        1.195310    0.702002    0.071917
     17          6           0       -1.191572    0.777563    0.311186
     18          6           0        6.710199   -2.299825    0.089503
     19          6           0       -3.660173    0.976407    0.598300
     20          7           0        1.718937   -1.452892    0.502567
     21          7           0        1.277885    2.010879   -0.235809
     22          7           0       -1.122783    2.083570    0.009195
     23          7           0        2.215333   -0.215977    0.171486
     24          7           0       -2.408670    0.225567    0.551792
     25          1           0       -7.867251   -2.000056   -1.051753
     26          1           0       -5.867688   -1.747975   -2.509864
     27          1           0       -7.919430   -0.886362    1.171739
     28          1           0        5.988172    2.253827   -0.731156
     29          1           0       -3.937782   -0.393293   -1.748841
     30          1           0       -5.984943    0.463075    1.928995
     31          1           0        7.450369    0.264055   -0.517874
     32          1           0        3.535365    2.056731   -0.413680
     33          1           0        3.991462   -2.144692    0.336777
     34          1           0       -0.180807   -2.195903    0.868681
     35          1           0        0.091900    3.666794   -0.491319
     36          1           0        7.221213   -2.295660    1.061455
     37          1           0        7.487382   -2.332022   -0.682603
     38          1           0        6.132061   -3.227074    0.026900
     39          1           0       -3.846063    1.355669    1.613306
     40          1           0       -3.521948    1.851006   -0.043377
     41          1           0       -2.435866   -0.735237    0.862184
 ---------------------------------------------------------------------

 SCF Done:  E(RM062X) =  -1007.61205877     A.U. after   12 cycles
 SCF Done:  E(RM062X) =  -1007.63254802     A.U. after   13 cycles
 SCF Done:  E(RM062X) =  -1007.63531074     A.U. after   13 cycles
 SCF Done:  E(RM062X) =  -1007.63588835     A.U. after   11 cycles
 SCF Done:  E(RM062X) =  -1007.63603960     A.U. after    9 cycles
 SCF Done:  E(RM062X) =  -1007.63608429     A.U. after    9 cycles
 SCF Done:  E(RM062X) =  -1007.63609834     A.U. after    9 cycles
 SCF Done:  E(RM062X) =  -1007.63610291     A.U. after    5 cycles

 The electronic state is 1-A.
 Alpha  occ. eigenvalues --  -14.85184 -14.79862 -14.79048 -14.76215 -14.75613
 Alpha  occ. eigenvalues --  -10.65016 -10.63154 -10.62208 -10.60378 -10.58754
 Alpha  occ. eigenvalues --  -10.58264 -10.56141 -10.56104 -10.55985 -10.55089
 Alpha  occ. eigenvalues --  -10.54923 -10.54914 -10.54855 -10.54833 -10.54826
 Alpha  occ. eigenvalues --  -10.54806 -10.54766 -10.54412 -10.53373  -1.17671
 Alpha  occ. eigenvalues --   -1.10337  -1.05450  -0.98844  -0.97684  -0.95532
 Alpha  occ. eigenvalues --   -0.93275  -0.89717  -0.86292  -0.85995  -0.83709
 Alpha  occ. eigenvalues --   -0.83381  -0.78460  -0.77317  -0.75172  -0.73108
 Alpha  occ. eigenvalues --   -0.71463  -0.68411  -0.66991  -0.66745  -0.66218
 Alpha  occ. eigenvalues --   -0.62522  -0.59677  -0.58719  -0.57466  -0.57129
 Alpha  occ. eigenvalues --   -0.55766  -0.55032  -0.53351  -0.52682  -0.52084
 Alpha  occ. eigenvalues --   -0.51208  -0.50757  -0.49829  -0.49053  -0.48363
 Alpha  occ. eigenvalues --   -0.48113  -0.47871  -0.46973  -0.46836  -0.46150
 Alpha  occ. eigenvalues --   -0.44087  -0.43166  -0.42681  -0.41344  -0.41191
 Alpha  occ. eigenvalues --   -0.40024  -0.39576  -0.39195  -0.38321  -0.35860
 Alpha  occ. eigenvalues --   -0.35154  -0.33793  -0.33130  -0.30408  -0.29978
 Alpha  occ. eigenvalues --   -0.29832  -0.27916  -0.26550
 Alpha virt. eigenvalues --   -0.00702   0.01774   0.02920   0.03288   0.03572
 Alpha virt. eigenvalues --    0.05689   0.09974   0.14769   0.14892   0.15384
 Alpha virt. eigenvalues --    0.17876   0.18032   0.18988   0.19431   0.19564

 Mulliken charges:
               1
     1  C   -0.193766
     2  C   -0.194914
     3  C   -0.192292
     4  C   -0.206968
     5  C   -0.209686
     6  C   -0.229806
     7  C   -0.219177
     8  C   -0.212813
     9  C   -0.252860
    10  C    0.030409
    11  C    0.184061
    12  C   -0.103942
    13  C    0.066886
    14  C    0.093469
    15  C    0.296619
    16  C    0.594720
    17  C    0.552178
    18  C   -0.562547
    19  C   -0.196086
    20  N   -0.309733
    21  N   -0.550233
    22  N   -0.586788
    23  N   -0.553764
    24  N   -0.698819
    25  H    0.197191
    26  H    0.198032
    27  H    0.198046
    28  H    0.200491
    29  H    0.192828
    30  H    0.195633
    31  H    0.189934
    32  H    0.220543
    33  H    0.205704
    34  H    0.239104
    35  H    0.211439
    36  H    0.196884
    37  H    0.190521
    38  H    0.189391
    39  H    0.202986
    40  H    0.221219
    41  H    0.405905
 Sum of Mulliken charges =  -0.00000

 Dipole moment (field-independent basis, Debye):
    X=             -3.6946    Y=             -2.4369    Z=              1.1094  Tot=              4.5628
 Quadrupole moment (field-independent basis, Debye-Ang):
   XX=           -108.4078   YY=           -134.7248   ZZ=           -136.0776
   XY=              5.1867   XZ=             -6.3880   YZ=              0.4323

 Normal termination of Gaussian 16 at Tue Jan 18 10:40:23 2022.
